version 3
run scenario-0-20221010-21:09:59-58510
attr configname scenario
attr datetime 20221010-21:09:59
attr datetimef 20221010-210959
attr experiment scenario
attr inifile omnetpp.ini
attr iterationvars ""
attr iterationvarsd ""
attr iterationvarsf ""
attr measurement ""
attr network Scenario
attr processid 58510
attr repetition 0
attr replication #0
attr resultdir results
attr runnumber 0
attr seedset 0
config image-path images
config network Scenario
config **.scalar-recording true
config **.vector-recording true
config *.playgroundSizeX 2500m
config *.playgroundSizeY 2500m
config *.playgroundSizeZ 50m
config *.connectionManager.sendDirect true
config *.connectionManager.maxInterfDist 500m
config *.connectionManager.drawMaxIntfDist false
config *.manager.updateInterval 1s
config *.manager.host "\"localhost\""
config *.manager.port 9999
config *.manager.autoShutdown true
config *.manager.launchConfig "xmldoc(\"test.launchd.xml\")"
config *.node[*].veinsmobility.x 0
config *.node[*].veinsmobility.y 0
config *.node[*].veinsmobility.z 0
config *.node[*].veinsmobility.setHostSpeed false
config *.node[*0].veinsmobility.accidentCount 1
config *.node[*0].veinsmobility.accidentStart 73s
config *.node[*0].veinsmobility.accidentDuration 50s

vector 0 Scenario.node[0].veinsmobility posx ETV
vector 1 Scenario.node[0].veinsmobility posy ETV
vector 2 Scenario.node[0].veinsmobility speed ETV
vector 3 Scenario.node[0].veinsmobility acceleration ETV
vector 4 Scenario.node[0].veinsmobility co2emission ETV
0	4	3	25
0	5	4	26.477112020156
0	6	5	29.513535913988
0	7	6	34.779582052748
0	8	7	42.195179381361
0	9	8	52.115543414257
0	10	9	63.374796515331
0	11	10	76.241841255524
0	12	11	91.071518590231
0	13	12	105.98839081343
0	14	13	121.06051544574
0	15	14	135.86093650637
0	16	15	150.93609555156
0	17	16	165.49687604186
1	4	3	226.6
1	5	4	226.6
1	6	5	226.6
1	7	6	226.6
1	8	7	226.6
1	9	8	226.6
1	10	9	226.6
1	11	10	226.6
1	12	11	226.6
1	13	12	226.6
1	14	13	226.6
1	15	14	226.6
1	16	15	226.6
1	17	16	226.6
2	5	4	1.4771120201563
2	6	5	3.0364238938317
2	7	6	5.2660461387597
2	8	7	7.4155973286135
2	9	8	9.9203640328953
2	10	9	11.259253101074
2	11	10	12.867044740194
2	12	11	14.829677334707
2	13	12	14.916872223203
2	14	13	15.072124632301
2	15	14	14.800421060638
2	16	15	15.075159045185
2	17	16	14.560780490299
3	6	5	1.5593118736753
3	7	6	2.229622244928
3	8	7	2.1495511898538
3	9	8	2.5047667042818
3	10	9	1.3388890681788
3	11	10	1.6077916391194
3	12	11	1.9626325945137
3	13	12	0.087194888496185
3	14	13	0.15525240909774
3	15	14	-0.27170357166324
3	16	15	0.27473798454739
3	17	16	-0.51437855488621
4	6	5	2.4001336467644
4	7	6	4.207176283976
4	8	7	5.3469894195117
4	9	8	7.6671633688224
4	10	9	5.4180515428003
4	11	10	6.9131929981355
4	12	11	9.141017049761
4	13	12	2.4496764922319
4	14	13	2.7173131187582
4	15	14	1.1543311162192
4	16	15	3.1518687463105
4	17	16	0.973
0	18	17	179.89129075462
0	19	18	193.96464142504
0	20	19	204.06170975307
0	21	20	210.85828485226
0	22	21	213.15485995144
0	23	22	213.53503505889
0	24	23	213.59500324355
0	25	24	213.59867177181
0	26	25	213.59893474949
0	27	26	213.59893474949
0	28	27	213.59893474949
0	29	28	213.59893474949
0	30	29	213.59893474949
0	31	30	213.59893474949
0	32	31	213.59893474949
0	33	32	213.59893474949
0	34	33	213.59893474949
0	35	34	213.59893474949
0	36	35	213.59893474949
0	37	36	213.59893474949
0	38	37	213.59893474949
1	18	17	226.6
1	19	18	229.8
1	20	19	229.8
1	21	20	229.8
1	22	21	229.8
1	23	22	229.8
1	24	23	229.8
1	25	24	229.8
1	26	25	229.8
1	27	26	229.8
1	28	27	229.8
1	29	28	229.8
1	30	29	229.8
1	31	30	229.8
1	32	31	229.8
1	33	32	229.8
1	34	33	229.8
1	35	34	229.8
1	36	35	229.8
1	37	36	229.8
1	38	37	229.8
2	18	17	14.394414712761
2	19	18	14.073350670421
2	20	19	10.097068328029
2	21	20	6.7965750991864
2	22	21	2.2965750991864
2	23	22	0.38017510744475
2	24	23	0.059968184662602
2	25	24	0.0036685282589045
2	26	25	0.0002629776798817
2	27	26	0
2	28	27	0
2	29	28	0
2	30	29	0
2	31	30	0
2	32	31	0
2	33	32	0
2	34	33	0
2	35	34	0
2	36	35	0
2	37	36	0
2	38	37	0
3	18	17	-0.16636577753816
3	19	18	-0.3210640423402
3	20	19	-3.9762823423914
3	21	20	-3.300493228843
3	22	21	-4.5
3	23	22	-1.9163999917416
3	24	23	-0.32020692278215
3	25	24	-0.056299656403697
3	26	25	-0.0034055505790228
3	27	26	-0.0002629776798817
3	28	27	0
3	29	28	0
3	30	29	0
3	31	30	0
3	32	31	0
3	33	32	0
3	34	33	0
3	35	34	0
3	36	35	0
3	37	36	0
3	38	37	0
4	18	17	1.5027757208269
4	19	18	0.973
4	20	19	0.973
4	21	20	0.973
4	22	21	0.973
4	23	22	0.973
4	24	23	0.973
4	25	24	1.1101271944196
4	26	25	1.1100124702076
4	27	26	0.973
4	28	27	0.973
4	29	28	0.973
4	30	29	0.973
4	31	30	0.973
4	32	31	0.973
4	33	32	0.973
4	34	33	0.973
4	35	34	0.973
4	36	35	0.973
4	37	36	0.973
4	38	37	0.973
4	39	38	0.973
4	40	39	0.973
4	41	40	0.973
4	42	41	0.973
4	43	42	0.973
4	44	43	0.973
4	45	44	0.973
4	46	45	0.973
4	47	46	1.9131344427714
4	48	47	3.5582066101079
4	49	48	4.6889155631404
4	50	49	5.3148968189942
4	51	50	8.2298510480048
4	52	51	6.2027140326489
4	53	52	11.02456484464
4	54	53	3.4320607808502
4	55	54	1.9142704735928
4	56	55	1.5005802603353
4	57	56	3.2153106528091
4	58	57	0.973
4	59	58	3.0115041463907
4	60	59	2.1751712863824
4	61	60	2.1193663392721
4	62	61	1.7029522232485
4	63	62	4.331079264166
3	39	38	0
3	40	39	0
3	41	40	0
3	42	41	0
3	43	42	0
3	44	43	0
3	45	44	0
3	46	45	0
3	47	46	1.7276336488314
3	48	47	2.3097215975402
3	49	48	2.1753469938878
3	50	49	1.9198876491515
3	51	50	2.5276067882543
3	52	51	1.4834439461352
3	53	52	2.5224465359235
3	54	53	0.35479534137284
3	55	54	-0.062824881006962
3	56	55	-0.174318036763
3	57	56	0.29216294675134
3	58	57	-0.81284904372878
3	59	58	0.26215903761331
3	60	59	0.022523997235112
3	61	60	0.0064087700331594
3	62	61	-0.10980497773271
3	63	62	0.60138523208443
2	39	38	0
2	40	39	0
2	41	40	0
2	42	41	0
2	43	42	0
2	44	43	0
2	45	44	0
2	46	45	0
2	47	46	1.7276336488314
2	48	47	4.0373552463716
2	49	48	6.2127022402594
2	50	49	8.1325898894109
2	51	50	10.660196677665
2	52	51	12.1436406238
2	53	52	14.666087159724
2	54	53	15.020882501097
2	55	54	14.95805762009
2	56	55	14.783739583327
2	57	56	15.075902530078
2	58	57	14.263053486349
2	59	58	14.525212523963
2	60	59	14.547736521198
2	61	60	14.554145291231
2	62	61	14.444340313498
2	63	62	15.045725545583
1	39	38	229.8
1	40	39	229.8
1	41	40	229.8
1	42	41	229.8
1	43	42	229.8
1	44	43	229.8
1	45	44	229.8
1	46	45	229.8
1	47	46	229.8
1	48	47	229.8
1	49	48	229.8
1	50	49	229.8
1	51	50	229.8
1	52	51	229.8
1	53	52	229.8
1	54	53	229.8
1	55	54	229.8
1	56	55	229.8
1	57	56	229.8
1	58	57	229.8
1	59	58	229.8
1	60	59	229.8
1	61	60	229.8
1	62	61	229.8
1	63	62	229.8
0	39	38	213.59893474949
0	40	39	213.59893474949
0	41	40	213.59893474949
0	42	41	213.59893474949
0	43	42	213.59893474949
0	44	43	213.59893474949
0	45	44	213.59893474949
0	46	45	213.59893474949
0	47	46	215.32656839832
0	48	47	219.36392364469
0	49	48	225.57662588495
0	50	49	233.70921577436
0	51	50	244.36941245203
0	52	51	256.51305307583
0	53	52	271.17914023555
0	54	53	286.20002273665
0	55	54	301.15808035674
0	56	55	315.94181994006
0	57	56	331.01772247014
0	58	57	345.28077595649
0	59	58	359.80598848046
0	60	59	374.35372500165
0	61	60	388.90787029288
0	62	61	403.35221060638
0	63	62	418.39793615196

